ITEM: TIMESTEP
0
ITEM: NUMBER OF ATOMS
2000
ITEM: BOX BOUNDS pp pp pp
-8.7500000000000000e+00 8.7500000000000000e+00
-8.7500000000000000e+00 8.7500000000000000e+00
-1.0000000000000001e-01 1.0000000000000001e-01
ITEM: ATOMS id type xs ys zs
509 1 0.0444799 0.0111 0.5
876 1 0.0652759 0.00868183 0.5
1018 1 0.0786223 0.0186401 0.5
1830 1 0.13554 0.0221299 0.5
265 1 0.152717 0.00786506 0.5
1244 1 0.137282 0.00356586 0.5
1994 1 0.181154 0.020562 0.5
145 1 0.197131 0.00634895 0.5
553 1 0.316833 0.0185756 0.5
1089 1 0.300471 0.00931234 0.5
482 1 0.347664 0.00873952 0.5
583 1 0.362592 0.0158866 0.5
1154 1 0.378555 0.00260393 0.5
1176 1 0.37898 0.0176484 0.5
1456 1 0.406628 0.000420044 0.5
1603 1 0.39309 0.00419938 0.5
1321 1 0.410017 0.0152752 0.5
1856 1 0.448207 0.0147597 0.5
1686 1 0.464639 0.0082773 0.5
931 1 0.478856 0.0170022 0.5
1043 1 0.479307 0.000565598 0.5
64 1 0.517576 0.000198613 0.5
1708 1 0.525876 0.0128227 0.5
1195 1 0.556719 0.00506696 0.5
511 1 0.571153 0.0215207 0.5
814 1 0.578834 0.00952702 0.5
1851 1 0.591276 0.00127886 0.5
1991 1 0.593139 0.0176879 0.5
244 1 0.619385 0.00810362 0.5
1280 1 0.696743 0.0114475 0.5
637 1 0.72622 0.0102245 0.5
1017 1 0.716213 0.0222342 0.5
1155 1 0.708401 0.00214606 0.5
1333 1 0.741439 0.0103756 0.5
39 1 0.751342 0.0210357 0.5
458 1 0.765076 0.0150359 0.5
734 1 0.767157 0.000383221 0.5
732 1 0.784268 0.0193072 0.5
1052 1 0.794299 0.00846919 0.5
1166 1 0.808343 0.00775714 0.5
163 1 0.822425 0.0106609 0.5
1537 1 0.861556 0.0118784 0.5
845 1 0.841918 0.021734 0.5
1210 1 0.879703 0.00874309 0.5
1598 1 0.891903 0.0142499 0.5
1747 1 0.906462 0.0153047 0.5
1534 1 0.951554 0.0193893 0.5
1903 1 0.95928 0.00585186 0.5
56 1 0.977626 0.0120386 0.5
1842 1 0.996008 0.0143658 0.5
7 1 0.0348689 0.0423651 0.5
386 1 0.067007 0.0287849 0.5
1688 1 0.0535987 0.0228178 0.5
1908 1 0.100196 0.0313301 0.5
104 1 0.11448 0.0230725 0.5
128 1 0.14949 0.0413598 0.5
1086 1 0.153787 0.02817 0.5
673 1 0.167297 0.024387 0.5
1651 1 0.198901 0.0370449 0.5
443 1 0.214086 0.0431893 0.5
1006 1 0.232584 0.0451221 0.5
1348 1 0.243471 0.0236475 0.5
173 1 0.33446 0.0304632 0.5
241 1 0.342117 0.0448149 0.5
918 1 0.349296 0.0251326 0.5
1532 1 0.386127 0.0307581 0.5
1303 1 0.402274 0.0348283 0.5
12 1 0.428795 0.0291635 0.5
1561 1 0.417559 0.0407044 0.5
1118 1 0.448534 0.0421509 0.5
1575 1 0.468764 0.0292473 0.5
466 1 0.466206 0.0439421 0.5
1251 1 0.499496 0.0342829 0.5
116 1 0.536429 0.0305765 0.5
437 1 0.564646 0.0357435 0.5
915 1 0.548387 0.0386589 0.5
587 1 0.580059 0.0330229 0.5
754 1 0.607249 0.0282724 0.5
1512 1 0.597607 0.0400193 0.5
187 1 0.623005 0.0347743 0.5
971 1 0.637274 0.0280894 0.5
1506 1 0.660739 0.0398765 0.5
297 1 0.685445 0.0247745 0.5
963 1 0.701216 0.0260549 0.5
1841 1 0.684809 0.0406753 0.5
10 1 0.727443 0.0428731 0.5
18 1 0.771712 0.0363587 0.5
1236 1 0.7869 0.0376359 0.5
812 1 0.815555 0.0429772 0.5
1883 1 0.802389 0.033504 0.5
205 1 0.831958 0.0442997 0.5
1371 1 0.846288 0.0365127 0.5
500 1 0.875667 0.022848 0.5
306 1 0.883422 0.0365031 0.5
871 1 0.864517 0.0415264 0.5
1377 1 0.900227 0.029582 0.5
1360 1 0.91004 0.0447366 0.5
105 1 0.964124 0.0382377 0.5
1791 1 0.984986 0.0250804 0.5
1217 1 0.112265 0.063048 0.5
1003 1 0.119174 0.0495338 0.5
1453 1 0.125959 0.0678587 0.5
147 1 0.13911 0.0647426 0.5
681 1 0.148961 0.0552642 0.5
1004 1 0.162627 0.0498763 0.5
1871 1 0.168205 0.0640561 0.5
1998 1 0.177291 0.0480224 0.5
881 1 0.197108 0.0641258 0.5
1931 1 0.232883 0.0651902 0.5
456 1 0.262579 0.066405 0.5
1989 1 0.283518 0.0606701 0.5
1922 1 0.309339 0.0681029 0.5
478 1 0.400432 0.0599921 0.5
1796 1 0.386747 0.0507868 0.5
1594 1 0.417737 0.0565812 0.5
1002 1 0.433042 0.0462491 0.5
1095 1 0.473497 0.0574033 0.5
207 1 0.497058 0.0605554 0.5
230 1 0.535098 0.0471871 0.5
1459 1 0.52657 0.0596289 0.5
632 1 0.563071 0.0618594 0.5
1580 1 0.558246 0.0484826 0.5
1983 1 0.547529 0.0589574 0.5
53 1 0.577811 0.0615228 0.5
1465 1 0.57801 0.0469852 0.5
256 1 0.612322 0.0462393 0.5
1672 1 0.592051 0.0536008 0.5
952 1 0.596144 0.067981 0.5
733 1 0.628766 0.049723 0.5
1252 1 0.645627 0.0508245 0.5
652 1 0.718283 0.0562863 0.5
454 1 0.735203 0.0597824 0.5
1510 1 0.747516 0.047573 0.5
352 1 0.762771 0.0494532 0.5
616 1 0.778578 0.052742 0.5
1953 1 0.792924 0.0672772 0.5
1948 1 0.801836 0.0536424 0.5
135 1 0.845459 0.0525803 0.5
687 1 0.841619 0.0675534 0.5
1156 1 0.859612 0.061493 0.5
460 1 0.871896 0.0544 0.5
1742 1 0.880576 0.065153 0.5
88 1 0.886693 0.0519829 0.5
353 1 0.920811 0.0680549 0.5
1198 1 0.94564 0.0470082 0.5
1600 1 0.941756 0.0616523 0.5
470 1 0.977691 0.0476648 0.5
161 1 0.0677083 0.0763554 0.5
1741 1 0.055443 0.0866745 0.5
1780 1 0.0834244 0.0864263 0.5
1788 1 0.0987761 0.0686343 0.5
1993 1 0.10227 0.0830223 0.5
1229 1 0.117537 0.0800069 0.5
374 1 0.153842 0.0704293 0.5
1125 1 0.154762 0.0871162 0.5
1380 1 0.176502 0.0840018 0.5
279 1 0.182303 0.0696435 0.5
1894 1 0.212833 0.0811862 0.5
1363 1 0.267267 0.081207 0.5
967 1 0.291601 0.0730353 0.5
1399 1 0.29976 0.0852538 0.5
606 1 0.355404 0.0881611 0.5
885 1 0.358664 0.0728519 0.5
1660 1 0.38889 0.0731305 0.5
552 1 0.420015 0.0881737 0.5
1058 1 0.434341 0.080939 0.5
977 1 0.472546 0.0873961 0.5
365 1 0.537384 0.0704059 0.5
623 1 0.552202 0.0751972 0.5
1756 1 0.570719 0.0838067 0.5
1772 1 0.583409 0.0759658 0.5
831 1 0.606776 0.0852542 0.5
485 1 0.632367 0.0869388 0.5
1592 1 0.629931 0.0705583 0.5
1930 1 0.64573 0.0756573 0.5
969 1 0.729004 0.0747807 0.5
1596 1 0.786701 0.0868878 0.5
1009 1 0.821924 0.0732786 0.5
349 1 0.857863 0.0873287 0.5
1677 1 0.854045 0.0743962 0.5
54 1 0.869338 0.0721906 0.5
1556 1 0.875475 0.0844081 0.5
820 1 0.893103 0.0760944 0.5
1909 1 0.889569 0.0888233 0.5
287 1 0.95404 0.0694601 0.5
444 1 0.951504 0.0831608 0.5
884 1 0.970612 0.077476 0.5
1281 1 0.989726 0.0815175 0.5
1429 1 0.0174733 0.108394 0.5
1555 1 0.0231765 0.0931566 0.5
925 1 0.0440866 0.096602 0.5
615 1 0.0592206 0.102705 0.5
1407 1 0.0697099 0.0920201 0.5
1959 1 0.0795285 0.102817 0.5
815 1 0.0964289 0.112334 0.5
932 1 0.0945847 0.0958176 0.5
1689 1 0.107824 0.101664 0.5
123 1 0.11929 0.111336 0.5
1597 1 0.172235 0.0988508 0.5
790 1 0.186652 0.106041 0.5
1732 1 0.213308 0.105041 0.5
1746 1 0.227486 0.0988662 0.5
33 1 0.24228 0.0941856 0.5
1078 1 0.268288 0.0969271 0.5
50 1 0.288261 0.095127 0.5
862 1 0.288915 0.110434 0.5
923 1 0.304863 0.11202 0.5
1240 1 0.32017 0.0941592 0.5
706 1 0.374268 0.106986 0.5
1039 1 0.368297 0.0944852 0.5
625 1 0.394584 0.109252 0.5
837 1 0.40386 0.0965786 0.5
1739 1 0.387567 0.0942339 0.5
566 1 0.438633 0.103011 0.5
1076 1 0.467788 0.106152 0.5
212 1 0.506451 0.100973 0.5
785 1 0.522883 0.0914364 0.5
197 1 0.532342 0.111923 0.5
984 1 0.556207 0.110261 0.5
599 1 0.569899 0.113068 0.5
842 1 0.635754 0.112434 0.5
1268 1 0.614238 0.109388 0.5
886 1 0.677674 0.104949 0.5
1232 1 0.696585 0.106899 0.5
1548 1 0.740883 0.110999 0.5
1760 1 0.744829 0.0964263 0.5
213 1 0.792651 0.105264 0.5
41 1 0.832435 0.112979 0.5
1461 1 0.833993 0.0974969 0.5
1612 1 0.848478 0.0978369 0.5
1410 1 0.869868 0.0975434 0.5
1458 1 0.863718 0.111712 0.5
1836 1 0.878481 0.111944 0.5
951 1 0.888294 0.102426 0.5
949 1 0.916707 0.0917738 0.5
1394 1 0.931557 0.112823 0.5
131 1 0.946515 0.104202 0.5
1224 1 0.969922 0.102242 0.5
1770 1 0.958161 0.0950099 0.5
1702 1 0.981801 0.09371 0.5
1759 1 0.987772 0.106228 0.5
691 1 0.00916943 0.123933 0.5
1895 1 0.0246718 0.128982 0.5
45 1 0.0669744 0.115582 0.5
1109 1 0.0823737 0.117517 0.5
575 1 0.108322 0.123093 0.5
275 1 0.132334 0.136138 0.5
168 1 0.188203 0.13291 0.5
29 1 0.221633 0.11947 0.5
1440 1 0.244191 0.117345 0.5
929 1 0.304453 0.132169 0.5
1254 1 0.351239 0.136331 0.5
1385 1 0.382155 0.11896 0.5
1373 1 0.431353 0.136181 0.5
1623 1 0.437372 0.12096 0.5
1485 1 0.462658 0.126133 0.5
648 1 0.496622 0.125237 0.5
684 1 0.509967 0.116687 0.5
286 1 0.53133 0.12695 0.5
507 1 0.56497 0.128405 0.5
1817 1 0.549842 0.124776 0.5
781 1 0.579909 0.130221 0.5
1652 1 0.583371 0.114295 0.5
280 1 0.592863 0.124583 0.5
1398 1 0.605439 0.122065 0.5
1269 1 0.618922 0.124588 0.5
1492 1 0.639503 0.13428 0.5
313 1 0.657872 0.122378 0.5
1615 1 0.672339 0.121296 0.5
172 1 0.681804 0.132717 0.5
394 1 0.686401 0.117468 0.5
457 1 0.696935 0.127613 0.5
858 1 0.722014 0.130209 0.5
473 1 0.74689 0.124839 0.5
1138 1 0.763201 0.120421 0.5
152 1 0.77853 0.132388 0.5
326 1 0.785894 0.118975 0.5
1810 1 0.809313 0.125729 0.5
763 1 0.878747 0.132092 0.5
1122 1 0.865384 0.12654 0.5
1515 1 0.902949 0.127085 0.5
1977 1 0.889777 0.122646 0.5
1570 1 0.914603 0.11798 0.5
942 1 0.926681 0.135091 0.5
129 1 0.943713 0.121172 0.5
548 1 0.952875 0.132501 0.5
391 1 0.958625 0.11412 0.5
1301 1 0.966816 0.128002 0.5
293 1 0.977311 0.117586 0.5
174 1 0.997935 0.115296 0.5
665 1 0.983614 0.132497 0.5
1182 1 0.00580516 0.144707 0.5
1552 1 0.0205711 0.150591 0.5
603 1 0.0661116 0.138327 0.5
1338 1 0.100979 0.152369 0.5
1309 1 0.20415 0.145595 0.5
494 1 0.219548 0.147029 0.5
1421 1 0.244757 0.146033 0.5
1710 1 0.232207 0.140019 0.5
947 1 0.25511 0.155326 0.5
441 1 0.279506 0.146749 0.5
1152 1 0.293219 0.14255 0.5
1764 1 0.306151 0.149152 0.5
690 1 0.318934 0.156673 0.5
1068 1 0.328406 0.14336 0.5
944 1 0.359291 0.151121 0.5
1153 1 0.343757 0.15085 0.5
846 1 0.379851 0.157473 0.5
1070 1 0.406722 0.15025 0.5
1322 1 0.415594 0.137167 0.5
248 1 0.420202 0.158521 0.5
991 1 0.451077 0.152621 0.5
702 1 0.475392 0.137632 0.5
1619 1 0.46114 0.141786 0.5
429 1 0.488332 0.155858 0.5
640 1 0.490255 0.139901 0.5
2000 1 0.513961 0.146521 0.5
880 1 0.541941 0.137178 0.5
1287 1 0.530677 0.146503 0.5
1061 1 0.549744 0.149951 0.5
577 1 0.570321 0.14696 0.5
685 1 0.590617 0.142809 0.5
758 1 0.605751 0.138875 0.5
768 1 0.607616 0.154159 0.5
498 1 0.621604 0.13799 0.5
660 1 0.621252 0.151857 0.5
1889 1 0.634484 0.152699 0.5
387 1 0.648103 0.151116 0.5
1682 1 0.669113 0.156717 0.5
193 1 0.690899 0.144382 0.5
1717 1 0.704454 0.152486 0.5
1853 1 0.706913 0.138021 0.5
257 1 0.735316 0.138121 0.5
383 1 0.745944 0.149594 0.5
1613 1 0.836204 0.146663 0.5
1417 1 0.852455 0.146748 0.5
167 1 0.880307 0.147453 0.5
1474 1 0.8695 0.157899 0.5
997 1 0.893138 0.139595 0.5
744 1 0.895503 0.156739 0.5
504 1 0.916778 0.15184 0.5
1934 1 0.911312 0.138215 0.5
1704 1 0.99095 0.150167 0.5
427 1 0.00440263 0.165148 0.5
1449 1 0.0300707 0.163479 0.5
1114 1 0.103598 0.175359 0.5
268 1 0.135102 0.166415 0.5
1524 1 0.119665 0.168705 0.5
1529 1 0.14111 0.181173 0.5
565 1 0.185945 0.180646 0.5
1001 1 0.207841 0.181404 0.5
550 1 0.27239 0.160163 0.5
1019 1 0.257383 0.169885 0.5
1383 1 0.293643 0.173824 0.5
1405 1 0.303338 0.16338 0.5
540 1 0.334301 0.161922 0.5
1196 1 0.322381 0.171408 0.5
1857 1 0.340712 0.175633 0.5
1201 1 0.413292 0.173032 0.5
1294 1 0.434573 0.180691 0.5
1400 1 0.475526 0.170822 0.5
1059 1 0.510099 0.179825 0.5
483 1 0.533061 0.160358 0.5
1231 1 0.523572 0.172791 0.5
816 1 0.539457 0.173532 0.5
1729 1 0.571438 0.164647 0.5
560 1 0.597697 0.17752 0.5
1955 1 0.611348 0.170697 0.5
696 1 0.633779 0.167267 0.5
1413 1 0.623926 0.178239 0.5
1880 1 0.654925 0.164699 0.5
1111 1 0.698696 0.180062 0.5
609 1 0.718101 0.160022 0.5
252 1 0.705573 0.16788 0.5
1022 1 0.762669 0.171891 0.5
1705 1 0.782553 0.175791 0.5
319 1 0.811736 0.178845 0.5
1284 1 0.797175 0.174733 0.5
93 1 0.818441 0.164358 0.5
130 1 0.83446 0.164716 0.5
5 1 0.848311 0.173381 0.5
823 1 0.862003 0.169562 0.5
993 1 0.882828 0.163583 0.5
1016 1 0.89545 0.173678 0.5
1979 1 0.90814 0.164438 0.5
260 1 0.910557 0.179678 0.5
1116 1 0.926129 0.179082 0.5
1942 1 0.945184 0.176434 0.5
381 1 0.970736 0.162147 0.5
1576 1 0.990479 0.171617 0.5
301 1 0.00489088 0.20099 0.5
983 1 0.0763682 0.182146 0.5
1881 1 0.0732386 0.196769 0.5
304 1 0.173511 0.196191 0.5
1674 1 0.203618 0.203114 0.5
1282 1 0.287973 0.197825 0.5
982 1 0.299573 0.18747 0.5
1978 1 0.314525 0.184178 0.5
1927 1 0.328292 0.191789 0.5
662 1 0.359573 0.194482 0.5
833 1 0.376878 0.182544 0.5
930 1 0.374578 0.200976 0.5
453 1 0.405021 0.202025 0.5
818 1 0.39392 0.190225 0.5
442 1 0.423751 0.192593 0.5
298 1 0.450424 0.185026 0.5
1502 1 0.44164 0.198485 0.5
1311 1 0.481182 0.203453 0.5
824 1 0.584938 0.187119 0.5
1261 1 0.596427 0.198805 0.5
1939 1 0.637497 0.185641 0.5
1752 1 0.663448 0.201937 0.5
1933 1 0.699986 0.194588 0.5
1997 1 0.682752 0.201744 0.5
412 1 0.724386 0.184728 0.5
834 1 0.724119 0.201228 0.5
1641 1 0.738714 0.193557 0.5
1234 1 0.771369 0.18603 0.5
1063 1 0.756963 0.20018 0.5
1956 1 0.786054 0.204227 0.5
664 1 0.804141 0.199068 0.5
1837 1 0.838585 0.185083 0.5
380 1 0.867903 0.182798 0.5
604 1 0.884032 0.183286 0.5
618 1 0.873644 0.196726 0.5
961 1 0.925416 0.195386 0.5
1396 1 0.940503 0.191473 0.5
1815 1 0.987003 0.186831 0.5
1666 1 0.00935471 0.224668 0.5
1379 1 0.0753941 0.211522 0.5
158 1 0.131722 0.223768 0.5
757 1 0.123376 0.210045 0.5
1980 1 0.148761 0.226841 0.5
375 1 0.243006 0.206553 0.5
137 1 0.24178 0.225685 0.5
1110 1 0.274244 0.220369 0.5
231 1 0.298158 0.208769 0.5
855 1 0.311094 0.21619 0.5
14 1 0.336748 0.214918 0.5
285 1 0.389329 0.20752 0.5
760 1 0.399508 0.219725 0.5
1169 1 0.466781 0.211522 0.5
1905 1 0.494271 0.217724 0.5
893 1 0.513427 0.206261 0.5
1312 1 0.514929 0.221284 0.5
67 1 0.536783 0.221726 0.5
227 1 0.553413 0.20518 0.5
1115 1 0.568764 0.214184 0.5
1422 1 0.60845 0.213092 0.5
712 1 0.648753 0.207548 0.5
1802 1 0.646751 0.222632 0.5
409 1 0.667441 0.223926 0.5
1867 1 0.674425 0.212572 0.5
1916 1 0.767532 0.21131 0.5
826 1 0.791241 0.225479 0.5
501 1 0.836272 0.216887 0.5
1436 1 0.8676 0.219288 0.5
798 1 0.944083 0.209947 0.5
52 1 0.0582077 0.228174 0.5
114 1 0.0785028 0.244386 0.5
1701 1 0.0738593 0.229994 0.5
1273 1 0.118656 0.248765 0.5
1730 1 0.135851 0.247961 0.5
697 1 0.19285 0.235246 0.5
399 1 0.224864 0.24596 0.5
1299 1 0.213931 0.233873 0.5
1937 1 0.243974 0.241652 0.5
1694 1 0.260149 0.241326 0.5
83 1 0.289663 0.245388 0.5
251 1 0.27735 0.237609 0.5
464 1 0.302694 0.240983 0.5
1473 1 0.302074 0.227281 0.5
1486 1 0.314754 0.247933 0.5
705 1 0.326203 0.229411 0.5
1635 1 0.338085 0.245161 0.5
866 1 0.341177 0.228807 0.5
1349 1 0.352216 0.236864 0.5
211 1 0.365051 0.242888 0.5
1221 1 0.405532 0.234398 0.5
1999 1 0.479219 0.235206 0.5
1088 1 0.505161 0.238449 0.5
1056 1 0.524995 0.232451 0.5
986 1 0.564178 0.242296 0.5
1442 1 0.55124 0.232642 0.5
1062 1 0.575001 0.232078 0.5
1325 1 0.589836 0.23788 0.5
597 1 0.650145 0.243839 0.5
1450 1 0.657841 0.232395 0.5
210 1 0.673338 0.238886 0.5
1253 1 0.709302 0.23852 0.5
160 1 0.765 0.228211 0.5
1798 1 0.767702 0.243209 0.5
1314 1 0.778844 0.233379 0.5
392 1 0.789993 0.243043 0.5
1162 1 0.828598 0.243213 0.5
1505 1 0.845316 0.231197 0.5
351 1 0.881307 0.228266 0.5
741 1 0.864471 0.23828 0.5
927 1 0.878112 0.244275 0.5
596 1 0.893643 0.239692 0.5
1340 1 0.91737 0.242026 0.5
1036 1 0.988769 0.248017 0.5
773 1 0.00965422 0.258518 0.5
1090 1 0.0472835 0.259838 0.5
1617 1 0.0632419 0.260997 0.5
492 1 0.0790742 0.259954 0.5
1583 1 0.0938997 0.253527 0.5
171 1 0.109966 0.268763 0.5
436 1 0.152869 0.263737 0.5
1237 1 0.169834 0.256715 0.5
1629 1 0.185804 0.25851 0.5
1352 1 0.211454 0.254906 0.5
975 1 0.271102 0.252633 0.5
1412 1 0.255269 0.257339 0.5
1757 1 0.328286 0.25858 0.5
139 1 0.344781 0.259787 0.5
708 1 0.385318 0.258789 0.5
1712 1 0.370693 0.266208 0.5
1781 1 0.490415 0.268677 0.5
1913 1 0.51962 0.255315 0.5
950 1 0.539017 0.261403 0.5
1382 1 0.551673 0.251138 0.5
1819 1 0.557042 0.271296 0.5
332 1 0.589406 0.268707 0.5
1941 1 0.576873 0.25837 0.5
635 1 0.61125 0.271055 0.5
1055 1 0.691533 0.264865 0.5
1543 1 0.705805 0.256532 0.5
882 1 0.728342 0.251418 0.5
976 1 0.746351 0.257513 0.5
1785 1 0.761225 0.255249 0.5
1887 1 0.760778 0.269816 0.5
110 1 0.802492 0.25534 0.5
355 1 0.817771 0.258683 0.5
1954 1 0.832809 0.262558 0.5
595 1 0.848828 0.254379 0.5
226 1 0.906662 0.268701 0.5
774 1 0.887814 0.255774 0.5
369 1 0.0303405 0.27599 0.5
937 1 0.0317508 0.29233 0.5
1359 1 0.0483901 0.292666 0.5
1806 1 0.0853168 0.274855 0.5
1787 1 0.0997945 0.281677 0.5
1809 1 0.110125 0.294289 0.5
334 1 0.12548 0.292478 0.5
222 1 0.186267 0.274623 0.5
432 1 0.229341 0.279384 0.5
414 1 0.255594 0.289181 0.5
1126 1 0.277758 0.281595 0.5
4 1 0.315903 0.281856 0.5
782 1 0.326062 0.294335 0.5
1572 1 0.380468 0.279431 0.5
1974 1 0.364322 0.281273 0.5
508 1 0.396001 0.27786 0.5
1915 1 0.406299 0.292071 0.5
1859 1 0.425198 0.282072 0.5
1975 1 0.410943 0.276004 0.5
11 1 0.453745 0.283851 0.5
1258 1 0.467003 0.293191 0.5
1949 1 0.470118 0.274485 0.5
658 1 0.494269 0.283943 0.5
1213 1 0.508531 0.28882 0.5
348 1 0.530304 0.292091 0.5
1467 1 0.552291 0.286819 0.5
126 1 0.573596 0.274729 0.5
1020 1 0.568756 0.290746 0.5
591 1 0.590599 0.283377 0.5
1936 1 0.599426 0.294698 0.5
208 1 0.614054 0.292726 0.5
1825 1 0.632572 0.279034 0.5
1378 1 0.64782 0.273898 0.5
933 1 0.701418 0.27748 0.5
642 1 0.725702 0.292716 0.5
438 1 0.77761 0.286357 0.5
497 1 0.790342 0.275939 0.5
378 1 0.809608 0.283112 0.5
926 1 0.842732 0.287414 0.5
726 1 0.934746 0.280326 0.5
1296 1 0.0144165 0.298499 0.5
238 1 0.0674408 0.315213 0.5
1616 1 0.065645 0.295546 0.5
1765 1 0.0799341 0.304205 0.5
1963 1 0.132699 0.305197 0.5
1649 1 0.157809 0.29642 0.5
345 1 0.195473 0.307817 0.5
1984 1 0.227824 0.295475 0.5
395 1 0.246375 0.302809 0.5
1707 1 0.26705 0.307666 0.5
284 1 0.306441 0.295521 0.5
368 1 0.337928 0.306737 0.5
1045 1 0.357013 0.315814 0.5
1497 1 0.380039 0.309159 0.5
1355 1 0.423711 0.303086 0.5
802 1 0.453358 0.300527 0.5
1766 1 0.481679 0.297203 0.5
817 1 0.517197 0.301475 0.5
1256 1 0.501195 0.304477 0.5
1754 1 0.528134 0.312453 0.5
678 1 0.556288 0.306299 0.5
141 1 0.582241 0.297427 0.5
180 1 0.571996 0.317473 0.5
1130 1 0.592148 0.308558 0.5
1914 1 0.60746 0.309103 0.5
1976 1 0.641418 0.314816 0.5
343 1 0.678942 0.304995 0.5
119 1 0.692649 0.311906 0.5
153 1 0.721054 0.308081 0.5
1027 1 0.706617 0.313273 0.5
1490 1 0.708435 0.297169 0.5
1084 1 0.737385 0.303506 0.5
421 1 0.761741 0.310509 0.5
541 1 0.752171 0.299821 0.5
491 1 0.79027 0.314864 0.5
516 1 0.774509 0.317068 0.5
1336 1 0.816033 0.30753 0.5
1778 1 0.804825 0.298344 0.5
1618 1 0.827005 0.316029 0.5
1544 1 0.838652 0.303533 0.5
1833 1 0.854695 0.299246 0.5
1910 1 0.881616 0.313984 0.5
970 1 0.895954 0.300941 0.5
423 1 0.937594 0.307002 0.5
1053 1 0.951536 0.298669 0.5
1509 1 0.974998 0.312996 0.5
1800 1 0.99615 0.300415 0.5
1700 1 1.95699e-05 0.328911 0.5
422 1 0.0344095 0.320697 0.5
70 1 0.046894 0.33224 0.5
16 1 0.0837871 0.319815 0.5
1698 1 0.0833067 0.33567 0.5
323 1 0.135963 0.319226 0.5
1074 1 0.127907 0.331116 0.5
415 1 0.157735 0.340467 0.5
1038 1 0.179184 0.337948 0.5
1034 1 0.194254 0.3409 0.5
305 1 0.225076 0.339829 0.5
181 1 0.230356 0.325826 0.5
263 1 0.243879 0.319345 0.5
593 1 0.24157 0.340355 0.5
1285 1 0.258995 0.321471 0.5
1775 1 0.28588 0.324612 0.5
901 1 0.310835 0.331129 0.5
1786 1 0.29613 0.336713 0.5
956 1 0.326945 0.33195 0.5
1653 1 0.338473 0.321602 0.5
1289 1 0.343384 0.336155 0.5
954 1 0.381825 0.331002 0.5
686 1 0.39903 0.327095 0.5
159 1 0.423571 0.318867 0.5
1981 1 0.414746 0.331915 0.5
338 1 0.446083 0.324215 0.5
1105 1 0.466343 0.319502 0.5
1588 1 0.460155 0.334685 0.5
177 1 0.503335 0.328957 0.5
1075 1 0.516115 0.321325 0.5
1243 1 0.537702 0.323859 0.5
122 1 0.552528 0.321258 0.5
1278 1 0.561465 0.338646 0.5
725 1 0.583635 0.327872 0.5
1477 1 0.598769 0.333244 0.5
408 1 0.655936 0.326748 0.5
1683 1 0.642361 0.334441 0.5
1356 1 0.671358 0.328747 0.5
1173 1 0.716364 0.323499 0.5
1690 1 0.723673 0.335931 0.5
390 1 0.742032 0.33344 0.5
38 1 0.771012 0.331359 0.5
1327 1 0.756868 0.326565 0.5
1563 1 0.787066 0.331229 0.5
762 1 0.840163 0.321009 0.5
71 1 0.853985 0.326858 0.5
735 1 0.887663 0.33142 0.5
756 1 0.905491 0.338799 0.5
1536 1 0.901199 0.322689 0.5
827 1 0.924277 0.320989 0.5
253 1 0.931216 0.338822 0.5
955 1 0.965541 0.325947 0.5
1664 1 0.0168343 0.35718 0.5
1663 1 0.0466195 0.348504 0.5
1328 1 0.0768941 0.359418 0.5
216 1 0.112683 0.352874 0.5
717 1 0.124552 0.344996 0.5
1650 1 0.130371 0.361463 0.5
1872 1 0.139974 0.34784 0.5
418 1 0.163466 0.354359 0.5
42 1 0.208197 0.3469 0.5
461 1 0.22218 0.355193 0.5
40 1 0.309706 0.358316 0.5
1750 1 0.314205 0.345163 0.5
704 1 0.337301 0.363161 0.5
87 1 0.370834 0.359301 0.5
1944 1 0.364155 0.344492 0.5
1525 1 0.398134 0.342409 0.5
861 1 0.416103 0.360533 0.5
1938 1 0.410963 0.34814 0.5
1441 1 0.474873 0.349206 0.5
895 1 0.497017 0.356542 0.5
1518 1 0.528584 0.346851 0.5
1968 1 0.530541 0.362973 0.5
887 1 0.57619 0.341243 0.5
1624 1 0.590245 0.347354 0.5
103 1 0.653877 0.359327 0.5
1108 1 0.639735 0.355127 0.5
1386 1 0.66589 0.351164 0.5
398 1 0.690983 0.356479 0.5
1008 1 0.709131 0.362924 0.5
1904 1 0.738599 0.359697 0.5
874 1 0.765435 0.351621 0.5
1014 1 0.752291 0.355578 0.5
1813 1 0.777643 0.344399 0.5
192 1 0.802902 0.342244 0.5
1464 1 0.815935 0.349987 0.5
1945 1 0.802363 0.358269 0.5
57 1 0.829715 0.354393 0.5
1250 1 0.863887 0.355654 0.5
49 1 0.922399 0.352467 0.5
82 1 0.947186 0.353696 0.5
121 1 0.0202868 0.377592 0.5
2 1 0.0372089 0.380176 0.5
1648 1 0.0299951 0.365505 0.5
1771 1 0.0646978 0.376015 0.5
911 1 0.100953 0.380155 0.5
1559 1 0.106177 0.365957 0.5
81 1 0.160567 0.369097 0.5
1065 1 0.185358 0.384505 0.5
1591 1 0.186496 0.368161 0.5
1748 1 0.217551 0.38001 0.5
1735 1 0.235757 0.36508 0.5
777 1 0.260636 0.379349 0.5
1241 1 0.256517 0.364224 0.5
448 1 0.281393 0.370031 0.5
1181 1 0.311802 0.372474 0.5
1733 1 0.327186 0.375361 0.5
1773 1 0.350203 0.379075 0.5
1943 1 0.358396 0.367816 0.5
1080 1 0.41145 0.373767 0.5
1092 1 0.425249 0.381681 0.5
1654 1 0.429354 0.364082 0.5
1573 1 0.439859 0.373559 0.5
63 1 0.475073 0.36402 0.5
1834 1 0.476068 0.378796 0.5
921 1 0.492442 0.379605 0.5
359 1 0.528324 0.380316 0.5
1950 1 0.542809 0.383481 0.5
258 1 0.55363 0.372381 0.5
1906 1 0.571216 0.375085 0.5
1482 1 0.586504 0.365568 0.5
15 1 0.63831 0.385073 0.5
185 1 0.656974 0.373576 0.5
840 1 0.642255 0.370752 0.5
292 1 0.670922 0.375647 0.5
1723 1 0.739872 0.377701 0.5
841 1 0.771011 0.376389 0.5
547 1 0.817793 0.365344 0.5
1344 1 0.80528 0.372789 0.5
44 1 0.839783 0.364605 0.5
1985 1 0.828525 0.374417 0.5
236 1 0.841936 0.381469 0.5
778 1 0.852959 0.370602 0.5
1392 1 0.867016 0.374794 0.5
459 1 0.882745 0.373741 0.5
579 1 0.905902 0.381167 0.5
1249 1 0.897082 0.367592 0.5
1659 1 0.913041 0.365981 0.5
262 1 0.000261747 0.399187 0.5
1865 1 0.0236497 0.392752 0.5
913 1 0.0337083 0.407809 0.5
1703 1 0.112171 0.402515 0.5
1493 1 0.123781 0.38728 0.5
1488 1 0.142345 0.388347 0.5
537 1 0.159186 0.396831 0.5
340 1 0.230296 0.393053 0.5
1803 1 0.242209 0.404273 0.5
775 1 0.253449 0.393035 0.5
873 1 0.267847 0.404717 0.5
361 1 0.284765 0.403654 0.5
1091 1 0.294088 0.390062 0.5
217 1 0.323818 0.407728 0.5
1222 1 0.343798 0.391214 0.5
1912 1 0.344479 0.405525 0.5
1471 1 0.383585 0.390667 0.5
357 1 0.403491 0.401195 0.5
851 1 0.389279 0.405646 0.5
1029 1 0.41149 0.389119 0.5
905 1 0.424404 0.408793 0.5
647 1 0.444745 0.387716 0.5
1566 1 0.432397 0.396108 0.5
1174 1 0.50002 0.409071 0.5
204 1 0.5508 0.396169 0.5
787 1 0.564621 0.389804 0.5
90 1 0.581245 0.389681 0.5
235 1 0.611924 0.40784 0.5
1973 1 0.655048 0.394671 0.5
857 1 0.677451 0.403889 0.5
1877 1 0.674612 0.389518 0.5
1734 1 0.695329 0.387124 0.5
1165 1 0.704723 0.408087 0.5
1324 1 0.720094 0.408109 0.5
99 1 0.73735 0.394556 0.5
525 1 0.751678 0.387732 0.5
1300 1 0.761271 0.398715 0.5
125 1 0.788029 0.401447 0.5
1368 1 0.804519 0.387404 0.5
1132 1 0.823735 0.387928 0.5
1726 1 0.830567 0.401251 0.5
1177 1 0.856404 0.399128 0.5
157 1 0.843867 0.408871 0.5
309 1 0.869964 0.390601 0.5
1523 1 0.903041 0.407089 0.5
308 1 0.00903852 0.42698 0.5
1864 1 0.0452973 0.417713 0.5
839 1 0.0587916 0.410457 0.5
1151 1 0.0650164 0.425851 0.5
303 1 0.0740992 0.411556 0.5
689 1 0.0996349 0.412495 0.5
723 1 0.156862 0.412852 0.5
382 1 0.171143 0.41939 0.5
1099 1 0.242506 0.419936 0.5
1907 1 0.258901 0.418467 0.5
819 1 0.27521 0.420915 0.5
631 1 0.298889 0.421093 0.5
445 1 0.383101 0.429502 0.5
1917 1 0.368423 0.42307 0.5
1042 1 0.466361 0.427968 0.5
62 1 0.485775 0.423887 0.5
1189 1 0.504028 0.424676 0.5
1706 1 0.520397 0.427397 0.5
259 1 0.532377 0.417646 0.5
1194 1 0.56127 0.421005 0.5
1428 1 0.548171 0.42952 0.5
946 1 0.576239 0.415852 0.5
562 1 0.587031 0.427592 0.5
311 1 0.606912 0.422026 0.5
1466 1 0.630961 0.428488 0.5
489 1 0.647909 0.411273 0.5
267 1 0.678164 0.419846 0.5
318 1 0.741392 0.426986 0.5
1037 1 0.73043 0.418061 0.5
1508 1 0.760467 0.413639 0.5
1835 1 0.779343 0.422286 0.5
416 1 0.798647 0.422719 0.5
1929 1 0.817601 0.423511 0.5
809 1 0.848773 0.421864 0.5
1260 1 0.863112 0.413214 0.5
1375 1 0.87492 0.430987 0.5
1611 1 0.964954 0.42519 0.5
1481 1 0.977917 0.415738 0.5
1202 1 0.993254 0.423681 0.5
830 1 0.0205874 0.437773 0.5
549 1 0.0324389 0.448749 0.5
1545 1 0.113 0.453466 0.5
1749 1 0.117715 0.431955 0.5
860 1 0.148238 0.442062 0.5
1547 1 0.187686 0.437164 0.5
1496 1 0.235042 0.432643 0.5
1902 1 0.232129 0.446062 0.5
411 1 0.266557 0.450932 0.5
651 1 0.253282 0.44708 0.5
748 1 0.252358 0.433154 0.5
770 1 0.362106 0.441966 0.5
1669 1 0.346467 0.446494 0.5
170 1 0.388955 0.449404 0.5
373 1 0.405797 0.452517 0.5
900 1 0.421991 0.451721 0.5
60 1 0.455985 0.440582 0.5
578 1 0.469129 0.451237 0.5
856 1 0.498437 0.440005 0.5
985 1 0.484287 0.453985 0.5
786 1 0.522926 0.441628 0.5
1832 1 0.571737 0.432018 0.5
1271 1 0.581138 0.444101 0.5
1093 1 0.599831 0.436048 0.5
1656 1 0.61652 0.433761 0.5
522 1 0.634055 0.444231 0.5
1197 1 0.651906 0.451399 0.5
1369 1 0.680784 0.445318 0.5
79 1 0.689231 0.433897 0.5
765 1 0.704038 0.435485 0.5
1888 1 0.725256 0.433635 0.5
889 1 0.754765 0.433229 0.5
788 1 0.774584 0.440768 0.5
1082 1 0.790504 0.436987 0.5
536 1 0.79886 0.452328 0.5
1306 1 0.808262 0.439302 0.5
109 1 0.857441 0.432507 0.5
1961 1 0.866285 0.44338 0.5
1966 1 0.883435 0.444937 0.5
175 1 0.900067 0.433702 0.5
822 1 0.920238 0.44425 0.5
1590 1 0.989148 0.453667 0.5
1571 1 0.00318361 0.466338 0.5
1354 1 0.0345966 0.465356 0.5
451 1 0.0769981 0.45872 0.5
675 1 0.0918394 0.458454 0.5
836 1 0.104182 0.466142 0.5
584 1 0.128815 0.457802 0.5
1868 1 0.118769 0.47078 0.5
1275 1 0.203876 0.471433 0.5
528 1 0.223988 0.457596 0.5
1718 1 0.224141 0.47195 0.5
867 1 0.238236 0.467337 0.5
1768 1 0.242536 0.45527 0.5
1849 1 0.249222 0.476526 0.5
1259 1 0.257001 0.464538 0.5
928 1 0.333993 0.475761 0.5
1634 1 0.331381 0.459578 0.5
1444 1 0.353133 0.461488 0.5
980 1 0.366664 0.455901 0.5
344 1 0.378339 0.474401 0.5
808 1 0.379456 0.460308 0.5
1337 1 0.393407 0.465937 0.5
683 1 0.424688 0.467342 0.5
588 1 0.48281 0.47483 0.5
619 1 0.499276 0.457075 0.5
1408 1 0.496907 0.471174 0.5
1136 1 0.522281 0.455778 0.5
1586 1 0.513172 0.468198 0.5
224 1 0.544086 0.45872 0.5
1808 1 0.529658 0.469627 0.5
903 1 0.576796 0.462346 0.5
907 1 0.591035 0.470296 0.5
751 1 0.622091 0.476625 0.5
191 1 0.657073 0.466299 0.5
1160 1 0.643505 0.474371 0.5
1205 1 0.670289 0.455347 0.5
1487 1 0.693542 0.47384 0.5
1790 1 0.684334 0.462076 0.5
1891 1 0.699203 0.456046 0.5
229 1 0.738768 0.465888 0.5
366 1 0.836097 0.459043 0.5
261 1 0.862443 0.456651 0.5
1347 1 0.854265 0.476406 0.5
1625 1 0.849764 0.462195 0.5
419 1 0.87217 0.467419 0.5
151 1 0.93285 0.468909 0.5
425 1 0.948443 0.473021 0.5
1844 1 0.958675 0.455747 0.5
766 1 0.974119 0.46496 0.5
1892 1 0.988876 0.468693 0.5
1610 1 0.00992343 0.480263 0.5
1855 1 0.0365803 0.495105 0.5
1057 1 0.0566239 0.499339 0.5
1587 1 0.0968215 0.479136 0.5
626 1 0.121039 0.495188 0.5
1585 1 0.138921 0.496933 0.5
1589 1 0.18181 0.483683 0.5
487 1 0.197848 0.486669 0.5
162 1 0.211278 0.497658 0.5
1404 1 0.230811 0.494042 0.5
1850 1 0.235256 0.481596 0.5
1847 1 0.252446 0.490061 0.5
1097 1 0.267655 0.482597 0.5
1077 1 0.306925 0.49424 0.5
1675 1 0.334784 0.499684 0.5
581 1 0.361534 0.48211 0.5
1292 1 0.358623 0.497397 0.5
1622 1 0.380919 0.488848 0.5
296 1 0.420059 0.489631 0.5
69 1 0.471073 0.484146 0.5
1900 1 0.486974 0.49002 0.5
431 1 0.500774 0.484865 0.5
1921 1 0.512307 0.494397 0.5
514 1 0.525027 0.484955 0.5
1032 1 0.539903 0.489261 0.5
55 1 0.567835 0.494041 0.5
1163 1 0.564953 0.477778 0.5
922 1 0.580405 0.481469 0.5
1361 1 0.605432 0.489313 0.5
1158 1 0.625602 0.493295 0.5
1446 1 0.656391 0.49956 0.5
136 1 0.67088 0.485176 0.5
295 1 0.699004 0.488328 0.5
914 1 0.722218 0.494038 0.5
1341 1 0.712283 0.478462 0.5
1331 1 0.738982 0.486444 0.5
428 1 0.755223 0.484769 0.5
1501 1 0.762196 0.498419 0.5
403 1 0.783368 0.484483 0.5
1763 1 0.776226 0.496663 0.5
988 1 0.809613 0.486634 0.5
1776 1 0.796365 0.489295 0.5
1606 1 0.822671 0.481598 0.5
1638 1 0.839173 0.492472 0.5
302 1 0.903046 0.486253 0.5
667 1 0.919426 0.484299 0.5
1923 1 0.915188 0.499166 0.5
656 1 0.948578 0.488284 0.5
1047 1 0.934213 0.485288 0.5
169 1 0.964834 0.477357 0.5
447 1 0.980432 0.480381 0.5
594 1 0.977582 0.494793 0.5
1699 1 0.995182 0.48381 0.5
144 1 0.00550495 0.521702 0.5
764 1 0.0199989 0.506727 0.5
1946 1 0.0347724 0.510023 0.5
728 1 0.0605651 0.518046 0.5
1882 1 0.0716325 0.505953 0.5
1511 1 0.127348 0.508623 0.5
1574 1 0.116837 0.520371 0.5
220 1 0.143737 0.511185 0.5
1838 1 0.156085 0.519774 0.5
657 1 0.203431 0.511638 0.5
1831 1 0.225472 0.514875 0.5
1186 1 0.240204 0.505397 0.5
449 1 0.312844 0.513662 0.5
894 1 0.329293 0.514766 0.5
670 1 0.347546 0.507361 0.5
1374 1 0.360483 0.515297 0.5
821 1 0.40461 0.510877 0.5
1824 1 0.419044 0.504918 0.5
1685 1 0.440047 0.519972 0.5
545 1 0.478344 0.502168 0.5
6 1 0.531743 0.502349 0.5
430 1 0.522865 0.514526 0.5
810 1 0.553216 0.501597 0.5
1758 1 0.556442 0.517868 0.5
957 1 0.57736 0.510005 0.5
1203 1 0.612573 0.518527 0.5
1553 1 0.6717 0.50397 0.5
324 1 0.687628 0.516116 0.5
776 1 0.687374 0.500067 0.5
413 1 0.703235 0.509108 0.5
94 1 0.719558 0.509093 0.5
503 1 0.738604 0.502101 0.5
435 1 0.751381 0.511184 0.5
117 1 0.792943 0.520205 0.5
1593 1 0.784436 0.508101 0.5
272 1 0.829597 0.520378 0.5
490 1 0.837508 0.507432 0.5
1495 1 0.823135 0.502066 0.5
719 1 0.859051 0.505848 0.5
1535 1 0.849123 0.516923 0.5
433 1 0.874035 0.505214 0.5
1886 1 0.874311 0.521526 0.5
477 1 0.90729 0.512842 0.5
1329 1 0.949157 0.502496 0.5
964 1 0.959276 0.512332 0.5
1951 1 0.992413 0.500328 0.5
586 1 0.982786 0.520316 0.5
1970 1 0.0405002 0.523473 0.5
1762 1 0.0282603 0.543847 0.5