ITEM: TIMESTEP
0
ITEM: NUMBER OF BONDS
0
ITEM: BOX BOUNDS pp pp pp
-8.75 8.75
-8.75 8.75
-0.1 0.1
ITEM: BONDS index atom1 atom1 btype 
ITEM: TIMESTEP
1000
ITEM: NUMBER OF BONDS
2170
ITEM: BOX BOUNDS pp pp pp
-8.75 8.75
-8.75 8.75
-0.1 0.1
ITEM: BONDS index atom1 atom1 btype 
1 509 792 1 
2 876 1018 1 
3 265 673 1 
4 265 1994 1 
5 1244 1830 1 
6 145 265 1 
7 145 636 1 
8 553 1089 1 
9 1089 1348 1 
10 482 1028 1 
11 482 918 1 
12 583 1176 1 
13 583 918 1 
14 1154 1395 1 
15 1154 1176 1 
16 1154 1603 1 
17 1456 1860 1 
18 1456 1603 1 
19 1321 1456 1 
20 1686 1856 1 
21 931 1251 1 
22 1043 1575 1 
23 64 1708 1 
24 64 801 1 
25 1195 1708 1 
26 511 587 1 
27 511 814 1 
28 814 1751 1 
29 1851 1991 1 
30 244 1991 1 
31 637 1402 1 
32 637 1333 1 
33 637 1434 1 
34 1017 1155 1 
35 1155 1402 1 
36 1155 1280 1 
37 39 1333 1 
38 39 1017 1 
39 458 734 1 
40 458 732 1 
41 458 1052 1 
42 734 1370 1 
43 732 1236 1 
44 732 1883 1 
45 1052 1166 1 
46 1166 1290 1 
47 1166 1662 1 
48 163 1290 1 
49 163 845 1 
50 845 1371 1 
51 1210 1598 1 
52 1598 1747 1 
53 56 1842 1 
54 386 1688 1 
55 104 1003 1 
56 104 1908 1 
57 128 1086 1 
58 128 681 1 
59 128 1004 1 
60 673 1086 1 
61 673 1830 1 
62 1651 1994 1 
63 443 1651 1 
64 443 1006 1 
65 1006 1894 1 
66 1348 1989 1 
67 173 482 1 
68 173 553 1 
69 241 885 1 
70 1532 1603 1 
71 1303 1321 1 
72 1303 1561 1 
73 12 1303 1 
74 12 1856 1 
75 1561 1594 1 
76 1118 1575 1 
77 466 1095 1 
78 466 1575 1 
79 466 931 1 
80 116 1580 1 
81 116 207 1 
82 437 511 1 
83 437 915 1 
84 437 1195 1 
85 915 1580 1 
86 587 1465 1 
87 754 1512 1 
88 754 1672 1 
89 1512 1991 1 
90 187 733 1 
91 187 754 1 
92 971 1252 1 
93 1506 1841 1 
94 297 963 1 
95 297 981 1 
96 963 1280 1 
97 963 1841 1 
98 10 39 1 
99 10 1510 1 
100 18 1236 1 
101 812 1883 1 
102 205 812 1 
103 205 687 1 
104 500 1210 1 
105 500 1537 1 
106 306 500 1 
107 306 1747 1 
108 871 1371 1 
109 1377 1747 1 
110 1360 1377 1 
111 105 1791 1 
112 1217 1453 1 
113 1217 1788 1 
114 1217 1993 1 
115 147 1453 1 
116 147 681 1 
117 147 1003 1 
118 1004 1998 1 
119 1004 1871 1 
120 881 1651 1 
121 456 1989 1 
122 478 1058 1 
123 478 1660 1 
124 1002 1118 1 
125 1002 1561 1 
126 207 1251 1 
127 230 1580 1 
128 230 1459 1 
129 230 1983 1 
130 632 1756 1 
131 53 632 1 
132 53 1465 1 
133 53 1672 1 
134 1465 1512 1 
135 256 1672 1 
136 256 952 1 
137 952 1592 1 
138 733 1252 1 
139 1252 1506 1 
140 652 886 1 
141 454 1510 1 
142 454 1760 1 
143 454 652 1 
144 352 616 1 
145 352 1510 1 
146 352 1548 1 
147 616 1953 1 
148 1948 1953 1 
149 135 871 1 
150 135 1156 1 
151 135 205 1 
152 687 1677 1 
153 687 1009 1 
154 1156 1677 1 
155 1156 1742 1 
156 460 1742 1 
157 460 871 1 
158 88 460 1 
159 88 306 1 
160 353 1600 1 
161 353 820 1 
162 1198 1600 1 
163 470 1534 1 
164 161 1993 1 
165 161 932 1 
166 1788 1908 1 
167 1229 1453 1 
168 1229 1689 1 
169 374 1871 1 
170 374 1125 1 
171 374 1380 1 
172 1125 1689 1 
173 1380 1597 1 
174 279 1998 1 
175 279 881 1 
176 1894 1931 1 
177 967 1399 1 
178 606 1922 1 
179 606 885 1 
180 1660 1796 1 
181 552 1058 1 
182 1058 1594 1 
183 977 1095 1 
184 365 623 1 
185 365 785 1 
186 365 1459 1 
187 623 984 1 
188 1756 1772 1 
189 831 952 1 
190 831 842 1 
191 485 842 1 
192 485 1930 1 
193 485 1615 1 
194 1592 1930 1 
195 969 1760 1 
196 969 1138 1 
197 1009 1948 1 
198 349 1677 1 
199 349 1612 1 
200 349 1461 1 
201 54 1742 1 
202 54 1556 1 
203 820 1909 1 
204 287 444 1 
205 287 1600 1 
206 444 1770 1 
207 444 884 1 
208 884 1281 1 
209 1429 1555 1 
210 925 1429 1 
211 925 1741 1 
212 615 1741 1 
213 615 1959 1 
214 1407 1741 1 
215 1407 1780 1 
216 815 932 1 
217 932 1780 1 
218 123 1689 1 
219 123 815 1 
220 790 1597 1 
221 790 1746 1 
222 33 1078 1 
223 33 1894 1 
224 33 456 1 
225 1078 1363 1 
226 50 1399 1 
227 50 1363 1 
228 862 1363 1 
229 862 1440 1 
230 923 929 1 
231 923 1240 1 
232 923 1399 1 
233 1240 1922 1 
234 706 1039 1 
235 625 1070 1 
236 625 837 1 
237 837 1739 1 
238 837 1039 1 
239 566 977 1 
240 566 1485 1 
241 1076 1485 1 
242 1076 1400 1 
243 212 684 1 
244 197 1817 1 
245 197 785 1 
246 984 1756 1 
247 599 1652 1 
248 599 984 1 
249 842 1268 1 
250 1268 1398 1 
251 886 1232 1 
252 1548 1760 1 
253 213 1596 1 
254 41 1461 1 
255 41 213 1 
256 1410 1556 1 
257 1410 1458 1 
258 1458 1612 1 
259 1836 1977 1 
260 951 1909 1 
261 951 1836 1 
262 951 1410 1 
263 949 1909 1 
264 949 1570 1 
265 1394 1570 1 
266 131 1224 1 
267 131 1394 1 
268 1224 1770 1 
269 1702 1759 1 
270 1702 1770 1 
271 691 1429 1 
272 45 603 1 
273 45 1959 1 
274 275 575 1 
275 275 1338 1 
276 168 790 1 
277 168 1732 1 
278 168 1309 1 
279 29 1732 1 
280 29 1710 1 
281 929 1764 1 
282 1373 1619 1 
283 1485 1623 1 
284 648 684 1 
285 286 880 1 
286 286 684 1 
287 507 577 1 
288 507 1817 1 
289 507 880 1 
290 781 1652 1 
291 280 1398 1 
292 280 1652 1 
293 1269 1398 1 
294 313 1492 1 
295 172 193 1 
296 172 394 1 
297 172 1615 1 
298 394 457 1 
299 394 1111 1 
300 457 1232 1 
301 858 1853 1 
302 858 969 1 
303 473 858 1 
304 152 383 1 
305 152 1705 1 
306 326 1810 1 
307 763 1977 1 
308 763 1122 1 
309 1122 1417 1 
310 1122 1474 1 
311 1515 1977 1 
312 1515 1934 1 
313 1570 1934 1 
314 942 1934 1 
315 129 131 1 
316 129 1301 1 
317 548 1301 1 
318 391 1224 1 
319 391 1301 1 
320 293 391 1 
321 293 1759 1 
322 293 665 1 
323 174 1759 1 
324 174 691 1 
325 174 1895 1 
326 665 1182 1 
327 1182 1552 1 
328 1338 1524 1 
329 494 1710 1 
330 494 550 1 
331 1421 1710 1 
332 1421 1440 1 
333 947 1421 1 
334 441 947 1 
335 1152 1764 1 
336 1152 1405 1 
337 690 1196 1 
338 690 1405 1 
339 1068 1254 1 
340 1068 1764 1 
341 944 1153 1 
342 944 1254 1 
343 846 1385 1 
344 846 1070 1 
345 1070 1201 1 
346 1322 1623 1 
347 248 1373 1 
348 248 1201 1 
349 248 1322 1 
350 991 1294 1 
351 702 1400 1 
352 429 483 1 
353 429 1312 1 
354 640 2000 1 
355 640 702 1 
356 880 1287 1 
357 1287 2000 1 
358 1061 1231 1 
359 577 781 1 
360 685 781 1 
361 685 758 1 
362 758 1269 1 
363 768 1955 1 
364 498 1269 1 
365 498 660 1 
366 660 1889 1 
367 660 768 1 
368 387 1889 1 
369 387 1880 1 
370 387 696 1 
371 1682 1880 1 
372 193 1682 1 
373 193 313 1 
374 257 383 1 
375 383 473 1 
376 1613 1810 1 
377 167 997 1 
378 167 1474 1 
379 167 993 1 
380 997 1515 1 
381 744 997 1 
382 744 1979 1 
383 504 942 1 
384 427 1815 1 
385 1449 1881 1 
386 1114 1379 1 
387 1114 1881 1 
388 268 275 1 
389 268 1529 1 
390 565 1980 1 
391 550 1383 1 
392 1019 1299 1 
393 540 1196 1 
394 540 1153 1 
395 540 1857 1 
396 1196 1978 1 
397 1400 1619 1 
398 1059 1231 1 
399 483 1287 1 
400 483 1231 1 
401 816 1059 1 
402 816 1729 1 
403 560 1955 1 
404 560 824 1 
405 696 768 1 
406 696 1413 1 
407 1413 1939 1 
408 609 1717 1 
409 609 1853 1 
410 252 1111 1 
411 252 1717 1 
412 1022 1705 1 
413 1022 1641 1 
414 1022 1234 1 
415 93 130 1 
416 93 1284 1 
417 93 319 1 
418 130 1613 1 
419 130 1837 1 
420 5 823 1 
421 5 1837 1 
422 5 1417 1 
423 823 1474 1 
424 993 1016 1 
425 1016 1979 1 
426 260 1979 1 
427 260 961 1 
428 260 1116 1 
429 1116 1942 1 
430 381 1942 1 
431 381 1704 1 
432 381 548 1 
433 1576 1704 1 
434 1576 1815 1 
435 301 1666 1 
436 983 1881 1 
437 983 1524 1 
438 304 1529 1 
439 982 1978 1 
440 1927 1978 1 
441 662 1857 1 
442 833 1153 1 
443 833 1385 1 
444 453 708 1 
445 818 1294 1 
446 818 930 1 
447 442 1502 1 
448 442 930 1 
449 298 1619 1 
450 298 991 1 
451 1502 1781 1 
452 1311 1312 1 
453 824 1115 1 
454 824 1261 1 
455 1261 1422 1 
456 1752 1939 1 
457 1752 1997 1 
458 1641 1916 1 
459 1641 1956 1 
460 664 826 1 
461 664 1284 1 
462 380 604 1 
463 380 618 1 
464 604 993 1 
465 604 823 1 
466 618 1436 1 
467 961 1396 1 
468 1666 1815 1 
469 1379 1701 1 
470 375 1299 1 
471 375 565 1 
472 137 399 1 
473 137 1629 1 
474 1110 1282 1 
475 1110 1383 1 
476 231 855 1 
477 231 1282 1 
478 231 982 1 
479 855 1473 1 
480 14 1927 1 
481 14 662 1 
482 14 705 1 
483 285 453 1 
484 285 930 1 
485 760 1502 1 
486 1169 1999 1 
487 1169 1311 1 
488 1905 1913 1 
489 1905 1999 1 
490 893 1059 1 
491 893 1312 1 
492 67 1062 1 
493 67 1325 1 
494 67 1056 1 
495 227 816 1 
496 227 1062 1 
497 1115 1729 1 
498 1422 1802 1 
499 712 1939 1 
500 712 1802 1 
501 409 1450 1 
502 409 1867 1 
503 1867 1997 1 
504 826 1162 1 
505 501 1505 1 
506 501 1436 1 
507 798 1396 1 
508 798 1340 1 
509 52 114 1 
510 114 1583 1 
511 114 1701 1 
512 1273 1806 1 
513 399 697 1 
514 83 464 1 
515 83 1635 1 
516 251 1473 1 
517 251 975 1 
518 464 1473 1 
519 464 1486 1 
520 1486 1757 1 
521 705 1486 1 
522 1635 1757 1 
523 866 1349 1 
524 866 1757 1 
525 211 1349 1 
526 211 1712 1 
527 1088 1913 1 
528 1088 1213 1 
529 1056 1442 1 
530 986 1056 1 
531 597 1450 1 
532 597 1378 1 
533 210 409 1 
534 210 1543 1 
535 210 1055 1 
536 1253 1543 1 
537 1253 1933 1 
538 160 976 1 
539 160 1063 1 
540 1314 1956 1 
541 392 1785 1 
542 1162 1505 1 
543 351 618 1 
544 927 1536 1 
545 773 1800 1 
546 773 1036 1 
547 1090 1296 1 
548 492 1616 1 
549 171 1787 1 
550 171 1583 1 
551 171 1617 1 
552 436 1963 1 
553 1237 1649 1 
554 1237 1963 1 
555 975 1412 1 
556 975 1694 1 
557 1412 1937 1 
558 139 1635 1 
559 139 782 1 
560 1712 1974 1 
561 1781 1905 1 
562 950 1819 1 
563 1382 1819 1 
564 1382 1442 1 
565 332 712 1 
566 635 986 1 
567 976 1798 1 
568 1785 1798 1 
569 1785 1887 1 
570 110 392 1 
571 110 826 1 
572 110 1314 1 
573 355 378 1 
574 595 741 1 
575 226 970 1 
576 226 735 1 
577 774 970 1 
578 774 927 1 
579 369 1090 1 
580 369 937 1 
581 369 422 1 
582 937 1616 1 
583 937 1359 1 
584 1806 1809 1 
585 1787 1806 1 
586 334 1273 1 
587 414 1412 1 
588 414 432 1 
589 4 139 1 
590 4 284 1 
591 1572 1974 1 
592 1572 1915 1 
593 508 1572 1 
594 508 1975 1 
595 1859 1975 1 
596 11 1949 1 
597 11 1088 1 
598 1258 1766 1 
599 1258 1949 1 
600 658 1766 1 
601 658 1256 1 
602 348 1754 1 
603 348 1467 1 
604 348 678 1 
605 126 1819 1 
606 126 1020 1 
607 126 1941 1 
608 591 1941 1 
609 591 1936 1 
610 208 1825 1 
611 208 1936 1 
612 208 1130 1 
613 1378 1825 1 
614 933 1490 1 
615 933 1055 1 
616 642 1490 1 
617 642 882 1 
618 438 516 1 
619 438 497 1 
620 497 1887 1 
621 378 926 1 
622 926 1544 1 
623 726 798 1 
624 1296 1800 1 
625 238 1765 1 
626 238 492 1 
627 1616 1617 1 
628 1765 1809 1 
629 345 1352 1 
630 395 432 1 
631 395 1707 1 
632 395 1126 1 
633 1707 1775 1 
634 284 1126 1 
635 368 782 1 
636 368 1045 1 
637 368 1653 1 
638 1045 1974 1 
639 1497 1981 1 
640 1497 1915 1 
641 1355 1859 1 
642 817 1754 1 
643 817 1256 1 
644 141 180 1 
645 141 1020 1 
646 141 678 1 
647 180 725 1 
648 1130 1624 1 
649 1130 1976 1 
650 343 1356 1 
651 343 408 1 
652 119 1027 1 
653 119 1356 1 
654 153 1173 1 
655 153 1084 1 
656 1027 1173 1 
657 421 541 1 
658 421 516 1 
659 541 1084 1 
660 541 1327 1 
661 491 516 1 
662 491 1778 1 
663 491 1563 1 
664 1336 1618 1 
665 1336 1778 1 
666 1336 1464 1 
667 1544 1618 1 
668 1544 1954 1 
669 1053 1800 1 
670 422 955 1 
671 70 1771 1 
672 16 1809 1 
673 16 1074 1 
674 1698 1765 1 
675 323 1038 1 
676 323 1649 1 
677 1074 1963 1 
678 415 1038 1 
679 415 1872 1 
680 415 418 1 
681 305 1735 1 
682 305 1034 1 
683 181 345 1 
684 181 1984 1 
685 263 593 1 
686 263 1241 1 
687 593 1285 1 
688 1285 1775 1 
689 1775 1984 1 
690 901 1786 1 
691 901 956 1 
692 956 1653 1 
693 1289 1786 1 
694 1289 1944 1 
695 954 1944 1 
696 686 1525 1 
697 686 954 1 
698 159 1981 1 
699 159 1355 1 
700 159 802 1 
701 338 1105 1 
702 338 802 1 
703 1105 1766 1 
704 177 1075 1 
705 177 1441 1 
706 1075 1243 1 
707 1075 1754 1 
708 1243 1518 1 
709 122 180 1 
710 122 887 1 
711 1278 1518 1 
712 725 1477 1 
713 1477 1624 1 
714 408 1976 1 
715 1173 1490 1 
716 390 1327 1 
717 390 1014 1 
718 38 390 1 
719 38 1563 1 
720 38 1945 1 
721 762 1618 1 
722 762 1833 1 
723 71 1910 1 
724 71 1954 1 
725 735 1509 1 
726 756 1659 1 
727 1536 1910 1 
728 955 1509 1 
729 1328 1698 1 
730 216 1559 1 
731 216 1328 1 
732 717 1074 1 
733 1650 1872 1 
734 418 1034 1 
735 42 305 1 
736 42 1591 1 
737 461 777 1 
738 461 1735 1 
739 40 1750 1 
740 40 1181 1 
741 40 217 1 
742 704 1750 1 
743 704 1786 1 
744 87 1080 1 
745 1525 1938 1 
746 1525 1981 1 
747 861 1938 1 
748 861 1654 1 
749 861 1080 1 
750 1518 1968 1 
751 887 1278 1 
752 1624 1914 1 
753 103 292 1 
754 103 1683 1 
755 103 1386 1 
756 1108 1914 1 
757 398 1027 1 
758 398 1904 1 
759 874 1014 1 
760 874 1813 1 
761 192 1464 1 
762 192 1563 1 
763 57 1464 1 
764 57 1833 1 
765 1250 1833 1 
766 49 253 1 
767 49 423 1 
768 82 1700 1 
769 121 1648 1 
770 2 1771 1 
771 1648 1663 1 
772 911 1703 1 
773 81 1650 1 
774 81 1488 1 
775 81 1065 1 
776 1591 1748 1 
777 777 1241 1 
778 448 1241 1 
779 1733 1750 1 
780 1773 1943 1 
781 1092 1654 1 
782 1573 1654 1 
783 1573 1588 1 
784 63 1588 1 
785 63 895 1 
786 921 1174 1 
787 921 1189 1 
788 258 1278 1 
789 258 1906 1 
790 1906 1950 1 
791 1482 1914 1 
792 15 1973 1 
793 15 235 1 
794 185 292 1 
795 185 1877 1 
796 185 840 1 
797 841 1813 1 
798 841 1300 1 
799 547 1985 1 
800 547 1132 1 
801 1344 1945 1 
802 44 1985 1 
803 44 57 1 
804 236 1177 1 
805 236 778 1 
806 236 1985 1 
807 778 1392 1 
808 778 1250 1 
809 459 1392 1 
810 459 1249 1 
811 579 756 1 
812 1249 1659 1 
813 262 1481 1 
814 913 1571 1 
815 1493 1559 1 
816 1488 1493 1 
817 537 1488 1 
818 537 723 1 
819 340 1803 1 
820 340 1748 1 
821 775 873 1 
822 775 777 1 
823 873 1907 1 
824 873 1803 1 
825 361 819 1 
826 361 1091 1 
827 361 448 1 
828 1091 1181 1 
829 1222 1773 1 
830 1222 1733 1 
831 1471 1943 1 
832 357 1029 1 
833 357 905 1 
834 851 905 1 
835 1029 1092 1 
836 1029 1080 1 
837 905 1471 1 
838 647 1092 1 
839 647 1566 1 
840 1566 1834 1 
841 1174 1834 1 
842 204 259 1 
843 204 1194 1 
844 787 1950 1 
845 787 946 1 
846 90 235 1 
847 90 311 1 
848 857 1877 1 
849 857 1734 1 
850 1877 1973 1 
851 1165 1734 1 
852 1165 1324 1 
853 99 1324 1 
854 99 1723 1 
855 525 1813 1 
856 525 1723 1 
857 1300 1835 1 
858 1300 1508 1 
859 125 841 1 
860 125 1368 1 
861 1132 1368 1 
862 1726 1929 1 
863 157 809 1 
864 157 1726 1 
865 157 1177 1 
866 309 1260 1 
867 308 1202 1 
868 308 913 1 
869 1864 1865 1 
870 1151 1545 1 
871 303 1882 1 
872 689 1703 1 
873 723 1749 1 
874 1099 1803 1 
875 1099 1902 1 
876 819 1907 1 
877 631 1669 1 
878 445 851 1 
879 445 1917 1 
880 1042 1189 1 
881 62 1042 1 
882 62 856 1 
883 1189 1706 1 
884 259 1706 1 
885 259 359 1 
886 1194 1950 1 
887 1428 1832 1 
888 1428 1808 1 
889 946 1093 1 
890 311 522 1 
891 311 562 1 
892 1466 1656 1 
893 489 1973 1 
894 489 1466 1 
895 267 1197 1 
896 267 1369 1 
897 318 1037 1 
898 318 1888 1 
899 1037 1508 1 
900 416 1368 1 
901 416 1929 1 
902 809 1260 1 
903 1260 1375 1 
904 1202 1590 1 
905 1202 1481 1 
906 830 1571 1 
907 549 839 1 
908 549 830 1 
909 860 1589 1 
910 860 1547 1 
911 1496 1902 1 
912 411 651 1 
913 411 1259 1 
914 651 1768 1 
915 651 748 1 
916 748 1907 1 
917 770 980 1 
918 770 1917 1 
919 1669 1912 1 
920 170 1917 1 
921 170 900 1 
922 373 1337 1 
923 60 1174 1 
924 578 683 1 
925 856 985 1 
926 985 1408 1 
927 786 1136 1 
928 786 1428 1 
929 786 1586 1 
930 1093 1271 1 
931 522 1656 1 
932 522 751 1 
933 1197 1466 1 
934 1197 1205 1 
935 1369 1891 1 
936 1369 1790 1 
937 79 1165 1 
938 79 267 1 
939 765 1888 1 
940 765 1341 1 
941 765 1891 1 
942 889 1037 1 
943 788 889 1 
944 1082 1306 1 
945 536 1082 1 
946 1306 1929 1 
947 109 809 1 
948 109 1961 1 
949 175 1523 1 
950 822 1523 1 
951 1590 1892 1 
952 1354 1571 1 
953 451 836 1 
954 451 1587 1 
955 675 1151 1 
956 675 689 1 
957 675 839 1 
958 584 836 1 
959 1275 1718 1 
960 528 1718 1 
961 528 1496 1 
962 1718 1850 1 
963 867 1768 1 
964 867 1850 1 
965 867 1849 1 
966 1768 1902 1 
967 1259 1849 1 
968 928 1444 1 
969 928 1634 1 
970 1634 1669 1 
971 980 1444 1 
972 344 808 1 
973 344 1622 1 
974 344 1337 1 
975 808 980 1 
976 1337 1824 1 
977 683 900 1 
978 588 985 1 
979 619 1136 1 
980 619 1408 1 
981 224 1832 1 
982 224 1271 1 
983 224 1163 1 
984 903 1093 1 
985 907 922 1 
986 907 1361 1 
987 751 903 1 
988 191 1205 1 
989 191 1160 1 
990 191 1790 1 
991 1487 1790 1 
992 229 1331 1 
993 229 1341 1 
994 366 1625 1 
995 366 1606 1 
996 366 1638 1 
997 261 1961 1 
998 261 1625 1 
999 1347 1625 1 
1000 1347 1966 1 
1001 419 1347 1 
1002 419 1638 1 
1003 151 1047 1 
1004 151 667 1 
1005 425 1047 1 
1006 1844 1892 1 
1007 766 1844 1 
1008 766 822 1 
1009 1610 1855 1 
1010 1610 1946 1 
1011 1057 1855 1 
1012 1057 1354 1 
1013 626 836 1 
1014 626 1545 1 
1015 1585 1587 1 
1016 487 1275 1 
1017 487 1589 1 
1018 162 1186 1 
1019 162 657 1 
1020 162 1831 1 
1021 1404 1850 1 
1022 1847 1849 1 
1023 1097 1847 1 
1024 1077 1675 1 
1025 581 1444 1 
1026 581 1292 1 
1027 1292 1374 1 
1028 296 1685 1 
1029 296 1947 1 
1030 69 588 1 
1031 69 296 1 
1032 69 578 1 
1033 1900 1921 1 
1034 431 1408 1 
1035 431 1900 1 
1036 514 1586 1 
1037 514 810 1 
1038 1032 1808 1 
1039 55 1032 1 
1040 55 957 1 
1041 55 97 1 
1042 922 1163 1 
1043 1158 1160 1 
1044 1158 1361 1 
1045 136 776 1 
1046 136 295 1 
1047 136 914 1 
1048 295 1487 1 
1049 428 1593 1 
1050 428 788 1 
1051 1501 1593 1 
1052 403 1776 1 
1053 403 1763 1 
1054 988 1776 1 
1055 988 1606 1 
1056 988 1495 1 
1057 302 433 1 
1058 302 667 1 
1059 667 1923 1 
1060 656 1329 1 
1061 656 1047 1 
1062 169 425 1 
1063 169 447 1 
1064 169 766 1 
1065 447 1699 1 
1066 447 1892 1 
1067 594 1329 1 
1068 594 1699 1 
1069 1699 1951 1 
1070 144 586 1 
1071 144 764 1 
1072 764 1610 1 
1073 1946 1970 1 
1074 728 1403 1 
1075 728 1970 1 
1076 728 1882 1 
1077 1511 1585 1 
1078 1511 1868 1 
1079 1574 1587 1 
1080 1838 1868 1 
1081 1186 1404 1 
1082 1186 1275 1 
1083 449 894 1 
1084 449 1077 1 
1085 670 894 1 
1086 670 1374 1 
1087 1374 1789 1 
1088 821 1824 1 
1089 821 1123 1 
1090 1685 1824 1 
1091 545 1900 1 
1092 545 1947 1 
1093 6 430 1 
1094 6 1921 1 
1095 430 974 1 
1096 430 471 1 
1097 810 1758 1 
1098 957 1758 1 
1099 324 1191 1 
1100 324 1334 1 
1101 776 1553 1 
1102 776 1446 1 
1103 413 1609 1 
1104 503 1501 1 
1105 503 1331 1 
1106 435 1501 1 
1107 117 1175 1 
1108 117 633 1 
1109 1593 1763 1 
1110 272 1495 1 
1111 272 1262 1 
1112 490 1638 1 
1113 490 1535 1 
1114 490 719 1 
1115 1535 1886 1 
1116 1535 1681 1 
1117 433 719 1 
1118 433 477 1 
1119 477 574 1 
1120 477 1681 1 
1121 964 1329 1 
1122 586 729 1 
1123 1170 1574 1 
1124 22 943 1 
1125 22 535 1 
1126 1242 1607 1 
1127 92 1124 1 
1128 1318 1745 1 
1129 1098 1318 1 
1130 1098 1831 1 
1131 209 1745 1 
1132 209 1351 1 
1133 979 1097 1 
1134 979 1801 1 
1135 271 1144 1 
1136 271 745 1 
1137 745 1801 1 
1138 190 1789 1 
1139 190 1085 1 
1140 218 1622 1 
1141 218 643 1 
1142 676 1159 1 
1143 1010 1789 1 
1144 1010 1873 1 
1145 1123 1248 1 
1146 1159 1248 1 
1147 1159 1257 1 
1148 948 1257 1 
1149 471 1425 1 
1150 1191 1714 1 
1151 1191 1553 1 
1152 1334 1761 1 
1153 1334 1609 1 
1154 300 953 1 
1155 59 941 1 
1156 59 358 1 
1157 1175 1776 1 
1158 1350 1886 1 
1159 1350 1390 1 
1160 891 1291 1 
1161 891 1112 1 
1162 1291 1923 1 
1163 729 1316 1 
1164 729 964 1 
1165 474 1316 1 
1166 474 779 1 
1167 474 505 1 
1168 140 1919 1 
1169 72 1023 1 
1170 215 1023 1 
1171 215 1920 1 
1172 535 572 1 
1173 535 1170 1 
1174 1072 1574 1 
1175 1072 1403 1 
1176 542 943 1 
1177 542 1242 1 
1178 542 1476 1 
1179 1124 1242 1 
1180 1124 1838 1 
1181 544 1060 1 
1182 239 1644 1 
1183 239 1144 1 
1184 239 1393 1 
1185 1862 1873 1 
1186 155 1257 1 
1187 806 1425 1 
1188 806 948 1 
1189 396 825 1 
1190 396 974 1 
1191 48 102 1 
1192 48 957 1 
1193 102 143 1 
1194 102 701 1 
1195 495 1614 1 
1196 495 759 1 
1197 1507 1714 1 
1198 1507 1614 1 
1199 972 1761 1 
1200 941 953 1 
1201 941 1990 1 
1202 620 1792 1 
1203 80 1886 1 
1204 80 1262 1 
1205 1390 1643 1 
1206 532 1112 1 
1207 767 1350 1 
1208 767 1681 1 
1209 779 1762 1 
1210 505 1673 1 
1211 505 1112 1 
1212 26 269 1 
1213 26 140 1 
1214 26 1812 1 
1215 65 234 1 
1216 65 1023 1 
1217 65 269 1 
1218 572 585 1 
1219 572 1072 1 
1220 1483 1774 1 
1221 1476 1967 1 
1222 605 1607 1 
1223 605 919 1 
1224 605 1060 1 
1225 214 1060 1 
1226 214 962 1 
1227 962 1986 1 
1228 277 912 1 
1229 277 1393 1 
1230 277 1351 1 
1231 1644 1807 1 
1232 364 682 1 
1233 364 1223 1 
1234 643 1862 1 
1235 655 676 1 
1236 655 682 1 
1237 825 1820 1 
1238 143 1965 1 
1239 701 1794 1 
1240 701 759 1 
1241 77 1230 1 
1242 77 1146 1 
1243 371 972 1 
1244 358 563 1 
1245 899 965 1 
1246 563 1460 1 
1247 1460 1792 1 
1248 452 1643 1 
1249 452 1692 1 
1250 452 1957 1 
1251 1779 1829 1 
1252 1779 1919 1 
1253 1673 1779 1 
1254 234 1307 1 
1255 585 1920 1 
1256 325 1483 1 
1257 325 585 1 
1258 1848 1967 1 
1259 813 919 1 
1260 813 1848 1 
1261 813 1827 1 
1262 863 1164 1 
1263 780 1986 1 
1264 780 863 1 
1265 739 1323 1 
1266 558 912 1 
1267 558 739 1 
1268 1030 1106 1 
1269 1030 1807 1 
1270 379 1667 1 
1271 379 694 1 
1272 465 1223 1 
1273 465 694 1 
1274 513 1557 1 
1275 513 1884 1 
1276 376 1317 1 
1277 1021 1546 1 
1278 638 1204 1 
1279 638 1820 1 
1280 350 1204 1 
1281 350 1965 1 
1282 154 1840 1 
1283 154 1146 1 
1284 1391 1642 1 
1285 1642 1932 1 
1286 1932 1990 1 
1287 8 965 1 
1288 426 1692 1 
1289 426 1460 1 
1290 916 1727 1 
1291 916 1468 1 
1292 1692 1727 1 
1293 1727 1843 1 
1294 1709 1898 1 
1295 1079 1829 1 
1296 1079 1972 1 
1297 892 1988 1 
1298 892 1100 1 
1299 133 1307 1 
1300 133 312 1 
1301 68 133 1 
1302 68 346 1 
1303 312 1100 1 
1304 407 1129 1 
1305 1632 1848 1 
1306 1409 1632 1 
1307 89 617 1 
1308 89 863 1 
1309 524 1655 1 
1310 524 1827 1 
1311 1164 1323 1 
1312 987 1393 1 
1313 115 865 1 
1314 115 1106 1 
1315 178 1332 1 
1316 178 865 1 
1317 178 291 1 
1318 291 1697 1 
1319 865 1667 1 
1320 202 694 1 
1321 202 1557 1 
1322 1317 1962 1 
1323 289 1546 1 
1324 289 1962 1 
1325 402 1212 1 
1326 402 638 1 
1327 1204 1484 1 
1328 613 853 1 
1329 613 1565 1 
1330 613 838 1 
1331 853 1226 1 
1332 714 1226 1 
1333 714 1794 1 
1334 1044 1565 1 
1335 1044 1935 1 
1336 472 1935 1 
1337 472 909 1 
1338 909 1146 1 
1339 1840 1918 1 
1340 112 1230 1 
1341 112 371 1 
1342 146 1932 1 
1343 146 233 1 
1344 233 899 1 
1345 1769 1843 1 
1346 1769 1957 1 
1347 1489 1647 1 
1348 1799 1972 1 
1349 677 897 1 
1350 677 1551 1 
1351 1500 1520 1 
1352 288 346 1 
1353 288 890 1 
1354 288 407 1 
1355 890 1519 1 
1356 1129 1409 1 
1357 1129 1774 1 
1358 1073 1655 1 
1359 617 1655 1 
1360 611 1180 1 
1361 611 617 1 
1362 611 1164 1 
1363 634 1678 1 
1364 634 973 1 
1365 973 1180 1 
1366 1199 1418 1 
1367 992 1167 1 
1368 992 1238 1 
1369 1884 1897 1 
1370 196 199 1 
1371 196 1179 1 
1372 199 1235 1 
1373 199 289 1 
1374 1015 1245 1 
1375 1015 1546 1 
1376 1235 1245 1 
1377 188 1051 1 
1378 188 1245 1 
1379 188 924 1 
1380 1051 1212 1 
1381 838 1484 1 
1382 24 1503 1 
1383 24 838 1 
1384 1119 1504 1 
1385 1119 1503 1 
1386 1845 1935 1 
1387 486 1134 1 
1388 486 1845 1 
1389 307 902 1 
1390 401 420 1 
1391 404 1007 1 
1392 404 1468 1 
1393 835 1007 1 
1394 835 1602 1 
1395 835 1315 1 
1396 534 1952 1 
1397 314 711 1 
1398 314 1161 1 
1399 711 1724 1 
1400 360 1988 1 
1401 360 393 1 
1402 393 1551 1 
1403 393 1724 1 
1404 607 897 1 
1405 994 1520 1 
1406 20 1530 1 
1407 20 602 1 
1408 20 321 1 
1409 749 1423 1 
1410 347 1519 1 
1411 347 700 1 
1412 650 700 1 
1413 650 1987 1 
1414 377 1073 1 
1415 377 1353 1 
1416 377 804 1 
1417 804 1180 1 
1418 1678 1901 1 
1419 424 973 1 
1420 424 800 1 
1421 363 557 1 
1422 363 1901 1 
1423 1418 1678 1 
1424 1646 1901 1 
1425 35 1697 1 
1426 803 1558 1 
1427 803 1514 1 
1428 1167 1332 1 
1429 417 1897 1 
1430 417 738 1 
1431 1514 1897 1 
1432 1308 1822 1 
1433 1308 1858 1 
1434 924 1538 1 
1435 715 1142 1 
1436 715 1538 1 
1437 1503 1964 1 
1438 1142 1964 1 
1439 1142 1814 1 
1440 1504 1565 1 
1441 580 1134 1 
1442 580 1480 1 
1443 1721 1918 1 
1444 569 1513 1 
1445 124 1172 1 
1446 124 1315 1 
1447 1470 1804 1 
1448 1206 1470 1 
1449 1206 1602 1 
1450 73 1007 1 
1451 897 1530 1 
1452 342 1520 1 
1453 282 463 1 
1454 282 1500 1 
1455 1353 1987 1 
1456 328 746 1 
1457 328 1313 1 
1458 746 1987 1 
1459 800 1893 1 
1460 557 674 1 
1461 557 800 1 
1462 968 1646 1 
1463 1924 1969 1 
1464 150 1167 1 
1465 46 66 1 
1466 46 150 1 
1467 46 1924 1 
1468 66 1516 1 
1469 66 1558 1 
1470 480 799 1 
1471 480 1514 1 
1472 654 769 1 
1473 738 1179 1 
1474 179 1387 1 
1475 179 738 1 
1476 1387 1822 1 
1477 320 1308 1 
1478 320 1992 1 
1479 320 1839 1 
1480 264 1839 1 
1481 264 715 1 
1482 264 362 1 
1483 362 959 1 
1484 362 904 1 
1485 1367 1814 1 
1486 917 1367 1 
1487 612 917 1 
1488 612 1346 1 
1489 627 639 1 
1490 627 1134 1 
1491 484 1995 1 
1492 484 1721 1 
1493 1342 1995 1 
1494 1011 1342 1 
1495 1011 1715 1 
1496 1011 1025 1 
1497 85 469 1 
1498 85 1715 1 
1499 85 1513 1 
1500 1220 1305 1 
1501 400 1305 1 
1502 1381 1541 1 
1503 1104 1381 1 
1504 1104 1172 1 
1505 25 1288 1 
1506 25 1031 1 
1507 1288 1804 1 
1508 1288 1876 1 
1509 331 1031 1 
1510 331 1161 1 
1511 232 339 1 
1512 232 551 1 
1513 200 1494 1 
1514 200 488 1 
1515 699 1424 1 
1516 321 1737 1 
1517 602 749 1 
1518 1423 1680 1 
1519 278 1680 1 
1520 463 1680 1 
1521 463 1069 1 
1522 573 1372 1 
1523 573 1190 1 
1524 1335 1893 1 
1525 1335 1372 1 
1526 674 737 1 
1527 737 1207 1 
1528 203 315 1 
1529 203 968 1 
1530 203 521 1 
1531 273 521 1 
1532 1713 1969 1 
1533 316 1516 1 
1534 316 1013 1 
1535 769 1387 1 
1536 659 769 1 
1537 659 1560 1 
1538 270 1992 1 
1539 270 1755 1 
1540 270 904 1 
1541 904 1533 1 
1542 639 1448 1 
1543 1448 1668 1 
1544 1668 1995 1 
1545 1025 1246 1 
1546 469 1220 1 
1547 127 469 1 
1548 127 1478 1 
1549 127 1661 1 
1550 1478 1676 1 
1551 1541 1676 1 
1552 1297 1381 1 
1553 1188 1874 1 
1554 1188 1711 1 
1555 333 1415 1 
1556 333 1711 1 
1557 333 1528 1 
1558 1415 1804 1 
1559 339 1528 1 
1560 488 699 1 
1561 488 607 1 
1562 225 1737 1 
1563 225 1141 1 
1564 223 1443 1 
1565 166 693 1 
1566 166 940 1 
1567 703 1190 1 
1568 703 940 1 
1569 703 1313 1 
1570 176 573 1 
1571 176 198 1 
1572 198 669 1 
1573 132 737 1 
1574 132 315 1 
1575 132 807 1 
1576 807 1926 1 
1577 598 807 1 
1578 1376 1579 1 
1579 1263 1564 1 
1580 1263 1345 1 
1581 1564 1713 1 
1582 182 1713 1 
1583 182 1218 1 
1584 182 316 1 
1585 1013 1330 1 
1586 405 1330 1 
1587 405 799 1 
1588 86 1560 1 
1589 86 405 1 
1590 742 1755 1 
1591 742 1274 1 
1592 843 1996 1 
1593 354 959 1 
1594 354 917 1 
1595 388 493 1 
1596 727 1818 1 
1597 671 1668 1 
1598 671 960 1 
1599 671 1246 1 
1600 118 1661 1 
1601 118 1035 1 
1602 406 1676 1 
1603 406 1687 1 
1604 184 1297 1 
1605 184 1247 1 
1606 184 1066 1 
1607 1066 1389 1 
1608 793 1783 1 
1609 793 1605 1 
1610 793 1599 1 
1611 945 1783 1 
1612 945 1711 1 
1613 551 1494 1 
1614 1193 1982 1 
1615 1193 1424 1 
1616 1141 1982 1 
1617 515 1443 1 
1618 34 223 1 
1619 34 1439 1 
1620 34 870 1 
1621 669 1207 1 
1622 1462 1579 1 
1623 1433 1960 1 
1624 1304 1433 1 
1625 1064 1376 1 
1626 1064 1304 1 
1627 1064 1926 1 
1628 517 789 1 
1629 517 598 1 
1630 789 1263 1 
1631 1096 1218 1 
1632 1096 1345 1 
1633 761 1639 1 
1634 761 1330 1 
1635 721 1639 1 
1636 721 1227 1 
1637 1227 1560 1 
1638 493 1665 1 
1639 1346 1480 1 
1640 864 1818 1 
1641 864 1582 1 
1642 165 960 1 
1643 165 727 1 
1644 629 1035 1 
1645 629 1246 1 
1646 531 1035 1 
1647 1247 1687 1 
1648 1247 1264 1 
1649 1272 1605 1 
1650 1215 1783 1 
1651 1215 1283 1 
1652 1121 1982 1 
1653 1054 1443 1 
1654 1475 1736 1 
1655 1216 1439 1 
1656 510 1475 1 
1657 510 646 1 
1658 693 1475 1 
1659 693 720 1 
1660 646 1067 1 
1661 95 1433 1 
1662 95 608 1 
1663 250 1094 1 
1664 556 755 1 
1665 336 556 1 
1666 336 1218 1 
1667 692 978 1 
1668 692 1639 1 
1669 692 795 1 
1670 795 1595 1 
1671 1228 1595 1 
1672 1228 1797 1 
1673 410 1274 1 
1674 294 1113 1 
1675 294 843 1 
1676 294 1665 1 
1677 743 1621 1 
1678 743 1113 1 
1679 1113 1463 1 
1680 283 506 1 
1681 108 531 1 
1682 164 356 1 
1683 164 875 1 
1684 164 1264 1 
1685 539 1452 1 
1686 539 888 1 
1687 888 1272 1 
1688 661 1184 1 
1689 661 698 1 
1690 255 1102 1 
1691 1102 1527 1 
1692 1102 1121 1 
1693 335 718 1 
1694 335 1054 1 
1695 718 859 1 
1696 582 630 1 
1697 3 242 1 
1698 3 1208 1 
1699 554 794 1 
1700 1208 1725 1 
1701 529 679 1 
1702 529 883 1 
1703 529 1343 1 
1704 679 1960 1 
1705 679 784 1 
1706 1094 1270 1 
1707 134 1094 1 
1708 299 755 1 
1709 299 384 1 
1710 384 908 1 
1711 384 1081 1 
1712 755 1266 1 
1713 978 1266 1 
1714 978 1620 1 
1715 281 1797 1 
1716 281 481 1 
1717 852 1695 1 
1718 98 1621 1 
1719 98 1899 1 
1720 1463 1693 1 
1721 1693 1805 1 
1722 527 936 1 
1723 527 1795 1 
1724 621 1584 1 
1725 506 621 1 
1726 356 1452 1 
1727 356 1389 1 
1728 61 1452 1 
1729 61 561 1 
1730 698 1878 1 
1731 698 1214 1 
1732 1209 1214 1 
1733 13 255 1 
1734 13 568 1 
1735 13 1283 1 
1736 750 1863 1 
1737 750 1527 1 
1738 479 859 1 
1739 242 582 1 
1740 1401 1725 1 
1741 883 1462 1 
1742 468 608 1 
1743 468 1168 1 
1744 468 1782 1 
1745 784 1026 1 
1746 1168 1270 1 
1747 322 1793 1 
1748 322 1270 1 
1749 908 1581 1 
1750 481 1620 1 
1751 481 1595 1 
1752 1695 1899 1 
1753 1630 1695 1 
1754 1319 1630 1 
1755 27 559 1 
1756 27 878 1 
1757 27 1498 1 
1758 559 1451 1 
1759 1451 1463 1 
1760 1451 1621 1 
1761 84 559 1 
1762 84 1805 1 
1763 84 796 1 
1764 1805 1971 1 
1765 434 1971 1 
1766 434 936 1 
1767 434 1568 1 
1768 589 1626 1 
1769 1568 1693 1 
1770 1447 1626 1 
1771 499 1795 1 
1772 499 1033 1 
1773 310 1584 1 
1774 590 1696 1 
1775 590 1584 1 
1776 221 1184 1 
1777 221 1821 1 
1778 221 995 1 
1779 653 995 1 
1780 653 1640 1 
1781 938 1430 1 
1782 938 1863 1 
1783 512 1302 1 
1784 512 718 1 
1785 1310 1430 1 
1786 872 1302 1 
1787 872 989 1 
1788 246 989 1 
1789 246 341 1 
1790 794 1738 1 
1791 1295 1725 1 
1792 1414 1608 1 
1793 1343 1691 1 
1794 1026 1691 1 
1795 1026 1255 1 
1796 990 1239 1 
1797 17 1793 1 
1798 17 1782 1 
1799 1531 1581 1 
1800 668 1797 1 
1801 668 852 1 
1802 1435 1890 1 
1803 397 668 1 
1804 397 869 1 
1805 869 1107 1 
1806 869 1890 1 
1807 771 797 1 
1808 797 1319 1 
1809 797 1107 1 
1810 878 1319 1 
1811 538 771 1 
1812 796 1498 1 
1813 219 1971 1 
1814 219 589 1 
1815 879 1604 1 
1816 879 1522 1 
1817 879 1149 1 
1818 120 999 1 
1819 120 389 1 
1820 389 1696 1 
1821 561 663 1 
1822 561 1209 1 
1823 195 1388 1 